 CRYSTAL
 PRIMVEC
     2.450852     0.000000     0.000000
     1.225426     2.122500     0.000000
     0.000000     0.000000    15.000000
 PRIMCOORD
   2      1
  6     1.225426     0.707500     7.500000
  6     2.450852     1.415000     7.500000
